                               Psi4 1.9.1 release

  ==> Input File <==

--------------------------------------------------------------------------
memory 32 GB

set_num_threads(16)

set {
    basis cc-pvdz
    df_basis_scf cc-pvdz-ri
    df_basis_cc cc-pvdz-ri
    scf_type df
    freeze_core true
    cc_type df
    qc_module occ
}

molecule h2o_pp5 {
    O -2.21165 0.99428 -1.34761
    H -1.39146 1.51606 -1.47747
    H -1.97320 0.08049 -1.61809
    O 0.09403 2.29278 1.59474
    H 0.12603 2.53877 0.64902
    H -0.74393 1.78978 1.67135
    O -1.36387 -1.68942 -1.58413
    H -1.87986 -2.36904 -2.04608
    H -1.51808 -1.85775 -0.60321
    O 1.15753 -1.98493 1.42883
    H 1.51336 -1.05256 1.56992
    H 1.63126 -2.54067 2.06706
    O 2.16234 0.46384 1.59959
    H 1.45220 1.14162 1.73767
    H 2.44819 0.61600 0.67631
    O 0.26320 2.39844 -1.29615
    H 1.04651 1.79827 -1.38236
    H 0.46651 3.18119 -1.83082
    O 1.44377 -1.86519 -1.36370
    H 0.48945 -1.86011 -1.60072
    H 1.44320 -2.10978 -0.41122
    O -1.62831 -1.98091 1.04938
    H -1.92768 -1.08892 1.33229
    H -0.69028 -2.03600 1.33896
    O 2.35473 0.62384 -1.26848
    H 3.15897 0.65726 -1.80967
    H 2.00663 -0.31760 -1.36507
    O -2.29362 0.74293 1.32406
    H -2.34790 0.87628 0.33220
    H -3.13510 1.07144 1.67759
}

energy("ccsd")

--------------------------------------------------------------------------

    Molecular point group: c1

    Geometry (in Angstrom), charge = 0, multiplicity = 1:

       Center              X                  Y                   Z               Mass
    ------------   -----------------  -----------------  -----------------  -----------------
         O           -2.210687781906     0.994471088768    -1.353622571601    15.994914619570
         H           -1.390497781906     1.516251088768    -1.483482571601     1.007825032230
         H           -1.972237781906     0.080681088768    -1.624102571601     1.007825032230
         O            0.094992218094     2.292971088768     1.588727428399    15.994914619570
         H            0.126992218094     2.538961088768     0.643007428399     1.007825032230
         H           -0.742967781906     1.789971088768     1.665337428399     1.007825032230
         O           -1.362907781906    -1.689228911232    -1.590142571601    15.994914619570
         H           -1.878897781906    -2.368848911232    -2.052092571601     1.007825032230
         H           -1.517117781906    -1.857558911232    -0.609222571601     1.007825032230
         O            1.158492218094    -1.984738911232     1.422817428399    15.994914619570
         H            1.514322218094    -1.052368911232     1.563907428399     1.007825032230
         H            1.632222218094    -2.540478911232     2.061047428399     1.007825032230
         O            2.163302218094     0.464031088768     1.593577428399    15.994914619570
         H            1.453162218094     1.141811088768     1.731657428399     1.007825032230
         H            2.449152218094     0.616191088768     0.670297428399     1.007825032230
         O            0.264162218094     2.398631088768    -1.302162571601    15.994914619570
         H            1.047472218094     1.798461088768    -1.388372571601     1.007825032230
         H            0.467472218094     3.181381088768    -1.836832571601     1.007825032230
         O            1.444732218094    -1.864998911232    -1.369712571601    15.994914619570
         H            0.490412218094    -1.859918911232    -1.606732571601     1.007825032230
         H            1.444162218094    -2.109588911232    -0.417232571601     1.007825032230
         O           -1.627347781906    -1.980718911232     1.043367428399    15.994914619570
         H           -1.926717781906    -1.088728911232     1.326277428399     1.007825032230
         H           -0.689317781906    -2.035808911232     1.332947428399     1.007825032230
         O            2.355692218094     0.624031088768    -1.274492571601    15.994914619570
         H            3.159932218094     0.657451088768    -1.815682571601     1.007825032230
         H            2.007592218094    -0.317408911232    -1.371082571601     1.007825032230
         O           -2.292657781906     0.743121088768     1.318047428399    15.994914619570
         H           -2.346937781906     0.876471088768     0.326187428399     1.007825032230
         H           -3.134137781906     1.071631088768     1.671577428399     1.007825032230

  Charge       = 0
  Multiplicity = 1
  Basis Set: CC-PVDZ
    Blend: CC-PVDZ
  Basis Set: CC-PVDZ-RI
    Blend: CC-PVDZ-RI

    Orbital Energies [Eh]
    ---------------------

    Doubly Occupied:

       1A    -20.580541     2A    -20.576413     3A    -20.570127
       4A    -20.567385     5A    -20.565375     6A    -20.547438
       7A    -20.544469     8A    -20.541433     9A    -20.536395
      10A    -20.533753    11A     -1.365645    12A     -1.355136
      13A     -1.352598    14A     -1.345591    15A     -1.344695
      16A     -1.324076    17A     -1.322005    18A     -1.320401
      19A     -1.311556    20A     -1.304352    21A     -0.732666
      22A     -0.722363    23A     -0.718532    24A     -0.715219
      25A     -0.714048    26A     -0.698763    27A     -0.695675
      28A     -0.692771    29A     -0.683861    30A     -0.682254
      31A     -0.629028    32A     -0.626166    33A     -0.593901
      34A     -0.591669    35A     -0.588468    36A     -0.579690
      37A     -0.563444    38A     -0.557045    39A     -0.554272
      40A     -0.529494    41A     -0.513873    42A     -0.509515
      43A     -0.501674    44A     -0.500015    45A     -0.497300
      46A     -0.485714    47A     -0.482100    48A     -0.479458
      49A     -0.475910    50A     -0.468518

  @DF-RHF Final Energy:  -760.41717086967083

   => Energetics <=

    Nuclear Repulsion Energy =            731.7637486986080830
    One-Electron Energy =               -2510.9762515073921350
    Two-Electron Energy =                1018.7953319391131117
    Total Energy =                       -760.4171708696708265
 Dipole X            :         -0.0102554            0.1818707            0.1716153
 Dipole Y            :         -0.0053655            0.0361294            0.0307639
 Dipole Z            :          0.0932318           -1.1364003           -1.0431685
 Magnitude           :                                                    1.0576383
	DF-MP2 Total Energy (a.u.)         :  -762.51244223401534
*** Psi4 exiting successfully. Buy a developer a beer!
